<?xml version="1.0" encoding="UTF-8"?>

<!-- generated on Mon Oct  7 16:55:00 2019 by Eclipse SUMO GUI Version 1.3.1
<configuration xmlns:xsi="http://www.w3.org/2001/XMLSchema-instance" xsi:noNamespaceSchemaLocation="http://sumo.dlr.de/xsd/sumoConfiguration.xsd">

    <input>
        <net-file value="../data/input-simulation/kirchheim-street-names.net.xml"/>
        <route-files value="../data/input-simulation/scenario2.rou.xml"/>
        <additional-files value="../data/output-simulation/additional.xml"/>
    </input>

    <output>
        <emission-output value="../data/output-simulation/emission_output.xml"/>
        <fcd-output value="../data/output-simulation/fcdoutput.xml"/>
        <tripinfo-output value="../data/output-simulation/tripinfo.xml"/>
    </output>

    <time>
        <begin value="0"/>
        <end value="10800"/>
    </time>

    <processing>
        <ignore-junction-blocker value="1"/>
    </processing>

    <emissions>
        <phemlight-path value="/usr/local/opt/sumo/share/sumo/data/emissions/PHEMlight/"/>
    </emissions>

    <traci_server>
        <remote-port value="4041"/>
    </traci_server>

    <gui_only>
        <gui-settings-file value="../data/input-simulation/gui-settings-origin-dest-vehicles.cfg"/>
    </gui_only>

</configuration>
-->

<emission-export xmlns:xsi="http://www.w3.org/2001/XMLSchema-instance" xsi:noNamespaceSchemaLocation="http://sumo.dlr.de/xsd/emission_file.xsd">
    <timestep time="0.00"/>
    <timestep time="1.00"/>
    <timestep time="2.00">
        <vehicle id="1" eclass="HBEFA3/PC_G_EU4" CO2="2624.72" CO="164.78" HC="0.81" NOx="1.20" PMx="0.07" fuel="1.13" electricity="0.00" noise="55.94" route="!1" type="DEFAULT_VEHTYPE" waiting="0.00" lane="-27444291_0" pos="5.10" speed="0.00" angle="54.94" x="3595.52" y="1554.79"/>
    </timestep>
    <timestep time="3.00">
        <vehicle id="1" eclass="HBEFA3/PC_G_EU4" CO2="3230.99" CO="147.39" HC="0.75" NOx="1.44" PMx="0.07" fuel="1.39" electricity="0.00" noise="64.37" route="!1" type="DEFAULT_VEHTYPE" waiting="0.00" lane="-27444291_0" pos="6.86" speed="1.76" angle="54.94" x="3596.97" y="1555.80"/>
    </timestep>
    <timestep time="4.00">
        <vehicle id="1" eclass="HBEFA3/PC_G_EU4" CO2="4953.44" CO="145.28" HC="0.78" NOx="2.19" PMx="0.11" fuel="2.13" electricity="0.00" noise="68.52" route="!1" type="DEFAULT_VEHTYPE" waiting="0.00" lane="-27444291_0" pos="11.10" speed="4.24" angle="54.94" x="3600.44" y="1558.24"/>
    </timestep>
    <timestep time="5.00">
        <vehicle id="1" eclass="HBEFA3/PC_G_EU4" CO2="3541.05" CO="102.37" HC="0.55" NOx="1.49" PMx="0.06" fuel="1.52" electricity="0.00" noise="62.63" route="!1" type="DEFAULT_VEHTYPE" waiting="0.00" lane="-27444291_0" pos="16.35" speed="5.25" angle="54.94" x="3604.74" y="1561.25"/>
        <vehicle id="2" eclass="HBEFA3/PC_G_EU4" CO2="2624.72" CO="164.78" HC="0.81" NOx="1.20" PMx="0.07" fuel="1.13" electricity="0.00" noise="55.94" route="!2" type="DEFAULT_VEHTYPE" waiting="0.00" lane="412954648#1_0" pos="1.31" speed="0.00" angle="9.70" x="787.42" y="2462.59"/>
    </timestep>
    <timestep time="6.00">
        <vehicle id="1" eclass="HBEFA3/PC_G_EU4" CO2="2850.40" CO="81.91" HC="0.44" NOx="1.16" PMx="0.04" fuel="1.23" electricity="0.00" noise="60.68" route="!1" type="DEFAULT_VEHTYPE" waiting="0.00" lane="-27444291_0" pos="22.08" speed="5.73" angle="54.94" x="3609.42" y="1564.54"/>
        <vehicle id="2" eclass="HBEFA3/PC_G_EU4" CO2="3201.94" CO="147.37" HC="0.75" NOx="1.43" PMx="0.07" fuel="1.38" electricity="0.00" noise="64.20" route="!2" type="DEFAULT_VEHTYPE" waiting="0.00" lane=":1785290_3_0" pos="1.73" speed="1.73" angle="12.12" x="787.92" y="2464.25"/>
    </timestep>
    <timestep time="7.00">
        <vehicle id="1" eclass="HBEFA3/PC_G_EU4" CO2="0.00" CO="0.00" HC="0.00" NOx="0.00" PMx="0.00" fuel="0.00" electricity="0.00" noise="54.33" route="!1" type="DEFAULT_VEHTYPE" waiting="0.00" lane="-27444291_0" pos="26.79" speed="4.71" angle="54.94" x="3613.28" y="1567.25"/>
        <vehicle id="2" eclass="HBEFA3/PC_G_EU4" CO2="3860.00" CO="133.73" HC="0.70" NOx="1.69" PMx="0.08" fuel="1.66" electricity="0.00" noise="65.04" route="!2" type="DEFAULT_VEHTYPE" waiting="0.00" lane=":1785290_3_0" pos="5.21" speed="3.48" angle="28.12" x="789.78" y="2467.09"/>
    </timestep>
    <timestep time="8.00">
        <vehicle id="1" eclass="HBEFA3/PC_G_EU4" CO2="0.00" CO="0.00" HC="0.00" NOx="0.00" PMx="0.00" fuel="0.00" electricity="0.00" noise="58.15" route="!1" type="DEFAULT_VEHTYPE" waiting="0.00" lane="-27444291_0" pos="31.50" speed="4.71" angle="54.94" x="3617.14" y="1569.96"/>
        <vehicle id="2" eclass="HBEFA3/PC_G_EU4" CO2="5431.06" CO="135.41" HC="0.75" NOx="2.37" PMx="0.11" fuel="2.33" electricity="0.00" noise="68.01" route="!2" type="DEFAULT_VEHTYPE" waiting="0.00" lane="-412954611_0" pos="1.38" speed="5.70" angle="83.24" x="795.26" y="2467.99"/>
        <vehicle id="3" eclass="HBEFA3/PC_G_EU4" CO2="2624.72" CO="164.78" HC="0.81" NOx="1.20" PMx="0.07" fuel="1.13" electricity="0.00" noise="55.94" route="!3" type="DEFAULT_VEHTYPE" waiting="0.00" lane="22338220_0" pos="5.10" speed="0.00" angle="191.85" x="2315.21" y="2613.18"/>
    </timestep>
    <timestep time="9.00">
        <vehicle id="1" eclass="HBEFA3/PC_G_EU4" CO2="2288.46" CO="82.74" HC="0.43" NOx="0.92" PMx="0.03" fuel="0.98" electricity="0.00" noise="58.56" route="!1" type="DEFAULT_VEHTYPE" waiting="0.00" lane="-27444291_0" pos="36.29" speed="4.79" angle="54.94" x="3621.06" y="1572.71"/>
        <vehicle id="2" eclass="HBEFA3/PC_G_EU4" CO2="4509.88" CO="100.16" HC="0.56" NOx="1.90" PMx="0.08" fuel="1.94" electricity="0.00" noise="64.80" route="!2" type="DEFAULT_VEHTYPE" waiting="0.00" lane="-412954611_0" pos="8.39" speed="7.01" angle="95.01" x="802.25" y="2467.38"/>
        <vehicle id="3" eclass="HBEFA3/PC_G_EU4" CO2="3689.72" CO="149.08" HC="0.77" NOx="1.65" PMx="0.08" fuel="1.59" electricity="0.00" noise="66.69" route="!3" type="DEFAULT_VEHTYPE" waiting="0.00" lane="22338220_0" pos="7.35" speed="2.25" angle="191.85" x="2314.75" y="2610.98"/>
    </timestep>
    <timestep time="10.00">
        <vehicle id="1" eclass="HBEFA3/PC_G_EU4" CO2="3592.56" CO="96.74" HC="0.52" NOx="1.50" PMx="0.06" fuel="1.54" electricity="0.00" noise="62.72" route="!1" type="DEFAULT_VEHTYPE" waiting="0.00" lane="-27444291_0" pos="42.05" speed="5.76" angle="54.94" x="3625.78" y="1576.02"/>
        <vehicle id="2" eclass="HBEFA3/PC_G_EU4" CO2="6454.99" CO="119.45" HC="0.70" NOx="2.77" PMx="0.13" fuel="2.77" electricity="0.00" noise="68.08" route="!2" type="DEFAULT_VEHTYPE" waiting="0.00" lane="-412954611_0" pos="17.29" speed="8.90" angle="95.01" x="811.11" y="2466.60"/>
        <vehicle id="3" eclass="HBEFA3/PC_G_EU4" CO2="0.00" CO="0.00" HC="0.00" NOx="0.00" PMx="0.00" fuel="0.00" electricity="0.00" noise="56.02" route="!3" type="DEFAULT_VEHTYPE" waiting="0.00" lane="22338220_0" pos="9.42" speed="2.07" angle="191.85" x="2314.33" y="2608.95"/>
    </timestep>
    <timestep time="11.00">
        <vehicle id="1" eclass="HBEFA3/PC_G_EU4" CO2="0.00" CO="0.00" HC="0.00" NOx="0.00" PMx="0.00" fuel="0.00" electricity="0.00" noise="56.02" route="!1" type="DEFAULT_VEHTYPE" waiting="0.00" lane="-27444291_0" pos="47.18" speed="5.13" angle="54.94" x="3629.97" y="1578.96"/>
        <vehicle id="2" eclass="HBEFA3/PC_G_EU4" CO2="7904.33" CO="130.28" HC="0.78" NOx="3.40" PMx="0.16" fuel="3.40" electricity="0.00" noise="69.66" route="!2" type="DEFAULT_VEHTYPE" waiting="0.00" lane=":4142754223_4_0" pos="6.82" speed="10.92" angle="96.23" x="821.98" y="2465.50"/>
        <vehicle id="3" eclass="HBEFA3/PC_G_EU4" CO2="2430.78" CO="124.56" HC="0.62" NOx="1.05" PMx="0.05" fuel="1.04" electricity="0.00" noise="57.21" route="!3" type="DEFAULT_VEHTYPE" waiting="0.00" lane="22338220_0" pos="11.58" speed="2.16" angle="191.85" x="2313.88" y="2606.84"/>
    </timestep>
    <timestep time="12.00">
        <vehicle id="1" eclass="HBEFA3/PC_G_EU4" CO2="3300.92" CO="89.08" HC="0.48" NOx="1.36" PMx="0.06" fuel="1.42" electricity="0.00" noise="61.92" route="!1" type="DEFAULT_VEHTYPE" waiting="0.00" lane="-27444291_0" pos="53.07" speed="5.89" angle="54.94" x="3634.80" y="1582.35"/>
        <vehicle id="2" eclass="HBEFA3/PC_G_EU4" CO2="8943.95" CO="136.34" HC="0.84" NOx="3.85" PMx="0.19" fuel="3.84" electricity="0.00" noise="70.51" route="!2" type="DEFAULT_VEHTYPE" waiting="0.00" lane="-412954610_0" pos="8.95" speed="12.91" angle="96.72" x="834.80" y="2464.02"/>
        <vehicle id="3" eclass="HBEFA3/PC_G_EU4" CO2="2789.02" CO="121.97" HC="0.62" NOx="1.21" PMx="0.06" fuel="1.20" electricity="0.00" noise="59.88" route="!3" type="DEFAULT_VEHTYPE" waiting="0.00" lane="22338220_0" pos="14.38" speed="2.80" angle="191.85" x="2313.31" y="2604.10"/>
    </timestep>
    <timestep time="13.00">
        <vehicle id="1" eclass="HBEFA3/PC_G_EU4" CO2="0.00" CO="0.00" HC="0.00" NOx="0.00" PMx="0.00" fuel="0.00" electricity="0.00" noise="57.11" route="!1" type="DEFAULT_VEHTYPE" waiting="0.00" lane="-27444291_0" pos="58.56" speed="5.48" angle="54.94" x="3639.29" y="1585.50"/>
        <vehicle id="2" eclass="HBEFA3/PC_G_EU4" CO2="9267.79" CO="132.02" HC="0.83" NOx="3.95" PMx="0.19" fuel="3.98" electricity="0.00" noise="70.67" route="!2" type="DEFAULT_VEHTYPE" waiting="0.00" lane="-412954610_0" pos="23.64" speed="14.70" angle="100.90" x="849.34" y="2461.94"/>
        <vehicle id="3" eclass="HBEFA3/PC_G_EU4" CO2="0.00" CO="0.00" HC="0.00" NOx="0.00" PMx="0.00" fuel="0.00" electricity="0.00" noise="52.14" route="!3" type="DEFAULT_VEHTYPE" waiting="0.00" lane="22338220_0" pos="16.14" speed="1.76" angle="191.85" x="2312.95" y="2602.38"/>
    </timestep>
    <timestep time="14.00">
        <vehicle id="1" eclass="HBEFA3/PC_G_EU4" CO2="0.00" CO="0.00" HC="0.00" NOx="0.00" PMx="0.00" fuel="0.00" electricity="0.00" noise="55.98" route="!1" type="DEFAULT_VEHTYPE" waiting="0.00" lane="-27444291_0" pos="63.45" speed="4.89" angle="54.94" x="3643.29" y="1588.31"/>
        <vehicle id="2" eclass="HBEFA3/PC_G_EU4" CO2="11886.65" CO="176.43" HC="1.09" NOx="5.14" PMx="0.26" fuel="5.11" electricity="0.00" noise="72.96" route="!2" type="DEFAULT_VEHTYPE" waiting="0.00" lane="-412954610_0" pos="40.44" speed="16.80" angle="101.73" x="865.79" y="2458.53"/>
        <vehicle id="3" eclass="HBEFA3/PC_G_EU4" CO2="0.00" CO="0.00" HC="0.00" NOx="0.00" PMx="0.00" fuel="0.00" electricity="0.00" noise="55.92" route="!3" type="DEFAULT_VEHTYPE" waiting="0.00" lane="22338220_0" pos="17.74" speed="1.61" angle="191.85" x="2312.62" y="2600.81"/>
    </timestep>
    <timestep time="15.00">
        <vehicle id="1" eclass="HBEFA3/PC_G_EU4" CO2="2205.06" CO="79.39" HC="0.41" NOx="0.87" PMx="0.03" fuel="0.95" electricity="0.00" noise="58.38" route="!1" type="DEFAULT_VEHTYPE" waiting="0.00" lane="-27444291_0" pos="68.36" speed="4.91" angle="54.94" x="3647.31" y="1591.13"/>
        <vehicle id="2" eclass="HBEFA3/PC_G_EU4" CO2="9642.14" CO="125.88" HC="0.81" NOx="4.04" PMx="0.20" fuel="4.14" electricity="0.00" noise="71.24" route="!2" type="DEFAULT_VEHTYPE" waiting="0.00" lane="-412954610_0" pos="58.67" speed="18.23" angle="101.73" x="883.64" y="2454.82"/>
        <vehicle id="3" eclass="HBEFA3/PC_G_EU4" CO2="2437.54" CO="133.53" HC="0.66" NOx="1.07" PMx="0.05" fuel="1.05" electricity="0.00" noise="56.60" route="!3" type="DEFAULT_VEHTYPE" waiting="0.00" lane="22338220_0" pos="19.35" speed="1.61" angle="191.85" x="2312.29" y="2599.23"/>
    </timestep>
    <timestep time="16.00">
        <vehicle id="1" eclass="HBEFA3/PC_G_EU4" CO2="2287.23" CO="79.89" HC="0.41" NOx="0.91" PMx="0.03" fuel="0.98" electricity="0.00" noise="58.70" route="!1" type="DEFAULT_VEHTYPE" waiting="0.00" lane="-27444291_0" pos="73.36" speed="5.00" angle="54.94" x="3651.40" y="1594.00"/>
        <vehicle id="2" eclass="HBEFA3/PC_G_EU4" CO2="15576.85" CO="244.66" HC="1.50" NOx="6.79" PMx="0.36" fuel="6.70" electricity="0.00" noise="75.57" route="!2" type="DEFAULT_VEHTYPE" waiting="0.00" lane="-412954610_0" pos="79.20" speed="20.53" angle="101.73" x="903.74" y="2450.65"/>
        <vehicle id="3" eclass="HBEFA3/PC_G_EU4" CO2="2803.66" CO="129.50" HC="0.65" NOx="1.22" PMx="0.06" fuel="1.21" electricity="0.00" noise="60.04" route="!3" type="DEFAULT_VEHTYPE" waiting="0.00" lane="22338220_0" pos="21.69" speed="2.33" angle="191.85" x="2311.81" y="2596.95"/>
    </timestep>
    <timestep time="17.00">
        <vehicle id="1" eclass="HBEFA3/PC_G_EU4" CO2="2938.84" CO="86.03" HC="0.46" NOx="1.20" PMx="0.05" fuel="1.26" electricity="0.00" noise="60.87" route="!1" type="DEFAULT_VEHTYPE" waiting="0.00" lane="-27444291_0" pos="78.91" speed="5.55" angle="54.94" x="3655.94" y="1597.19"/>
        <vehicle id="2" eclass="HBEFA3/PC_G_EU4" CO2="0.00" CO="0.00" HC="0.00" NOx="0.00" PMx="0.00" fuel="0.00" electricity="0.00" noise="67.22" route="!2" type="DEFAULT_VEHTYPE" waiting="0.00" lane="-412954610_0" pos="98.90" speed="19.69" angle="101.73" x="923.02" y="2446.64"/>
        <vehicle id="3" eclass="HBEFA3/PC_G_EU4" CO2="2381.52" CO="120.31" HC="0.60" NOx="1.02" PMx="0.05" fuel="1.02" electricity="0.00" noise="57.06" route="!3" type="DEFAULT_VEHTYPE" waiting="0.00" lane="22338220_0" pos="24.05" speed="2.36" angle="191.85" x="2311.32" y="2594.64"/>
        <vehicle id="6" eclass="HBEFA3/PC_G_EU4" CO2="2624.72" CO="164.78" HC="0.81" NOx="1.20" PMx="0.07" fuel="1.13" electricity="0.00" noise="55.94" route="!6" type="DEFAULT_VEHTYPE" waiting="0.00" lane="4776674#2_0" pos="5.10" speed="0.00" angle="159.11" x="3444.02" y="3610.53"/>
    </timestep>
    <timestep time="18.00">
        <vehicle id="1" eclass="HBEFA3/PC_G_EU4" CO2="0.00" CO="0.00" HC="0.00" NOx="0.00" PMx="0.00" fuel="0.00" electricity="0.00" noise="54.73" route="!1" type="DEFAULT_VEHTYPE" waiting="0.00" lane="-27444291_0" pos="83.57" speed="4.66" angle="54.94" x="3659.76" y="1599.87"/>
        <vehicle id="2" eclass="HBEFA3/PC_G_EU4" CO2="6215.02" CO="52.09" HC="0.39" NOx="2.38" PMx="0.11" fuel="2.67" electricity="0.00" noise="69.88" route="!2" type="DEFAULT_VEHTYPE" waiting="0.00" lane=":cluster_2463235998_3659704503_23_0" pos="3.86" speed="20.26" angle="101.24" x="942.87" y="2442.57"/>
        <vehicle id="3" eclass="HBEFA3/PC_G_EU4" CO2="0.00" CO="0.00" HC="0.00" NOx="0.00" PMx="0.00" fuel="0.00" electricity="0.00" noise="54.42" route="!3" type="DEFAULT_VEHTYPE" waiting="0.00" lane="22338220_0" pos="25.90" speed="1.84" angle="191.85" x="2310.94" y="2592.83"/>
        <vehicle id="6" eclass="HBEFA3/PC_G_EU4" CO2="3418.93" CO="147.80" HC="0.75" NOx="1.52" PMx="0.08" fuel="1.47" electricity="0.00" noise="65.40" route="!6" type="DEFAULT_VEHTYPE" waiting="0.00" lane="4776674#2_0" pos="7.08" speed="1.98" angle="159.11" x="3444.72" y="3608.68"/>
    </timestep>
    <timestep time="19.00">
        <vehicle id="1" eclass="HBEFA3/PC_G_EU4" CO2="2866.36" CO="89.39" HC="0.47" NOx="1.18" PMx="0.05" fuel="1.23" electricity="0.00" noise="60.56" route="!1" type="DEFAULT_VEHTYPE" waiting="0.00" lane="-27444291_0" pos="88.75" speed="5.18" angle="54.94" x="3664.00" y="1602.84"/>
        <vehicle id="2" eclass="HBEFA3/PC_G_EU4" CO2="6419.53" CO="56.01" HC="0.41" NOx="2.46" PMx="0.12" fuel="2.76" electricity="0.00" noise="70.21" route="!2" type="DEFAULT_VEHTYPE" waiting="0.00" lane="-38331806#0_0" pos="16.23" speed="20.83" angle="100.92" x="963.32" y="2438.61"/>
        <vehicle id="3" eclass="HBEFA3/PC_G_EU4" CO2="0.00" CO="0.00" HC="0.00" NOx="0.00" PMx="0.00" fuel="0.00" electricity="0.00" noise="55.13" route="!3" type="DEFAULT_VEHTYPE" waiting="0.00" lane="22338220_0" pos="27.42" speed="1.52" angle="191.85" x="2310.63" y="2591.34"/>
        <vehicle id="6" eclass="HBEFA3/PC_G_EU4" CO2="3869.72" CO="131.20" HC="0.69" NOx="1.69" PMx="0.08" fuel="1.66" electricity="0.00" noise="64.83" route="!6" type="DEFAULT_VEHTYPE" waiting="0.00" lane="4776674#2_0" pos="10.75" speed="3.67" angle="159.11" x="3446.03" y="3605.25"/>
    </timestep>
    <timestep time="20.00">
        <vehicle id="1" eclass="HBEFA3/PC_G_EU4" CO2="2416.95" CO="77.65" HC="0.41" NOx="0.96" PMx="0.03" fuel="1.04" electricity="0.00" noise="59.31" route="!1" type="DEFAULT_VEHTYPE" waiting="0.00" lane="-27444291_0" pos="94.12" speed="5.37" angle="54.94" x="3668.39" y="1605.93"/>
        <vehicle id="2" eclass="HBEFA3/PC_G_EU4" CO2="0.00" CO="0.00" HC="0.00" NOx="0.00" PMx="0.00" fuel="0.00" electricity="0.00" noise="67.82" route="!2" type="DEFAULT_VEHTYPE" waiting="0.00" lane="-38331806#0_0" pos="36.46" speed="20.23" angle="100.92" x="983.19" y="2434.77"/>
        <vehicle id="3" eclass="HBEFA3/PC_G_EU4" CO2="3054.01" CO="130.80" HC="0.67" NOx="1.34" PMx="0.06" fuel="1.31" electricity="0.00" noise="61.62" route="!3" type="DEFAULT_VEHTYPE" waiting="0.00" lane="22338220_0" pos="30.00" speed="2.58" angle="191.85" x="2310.10" y="2588.82"/>
        <vehicle id="6" eclass="HBEFA3/PC_G_EU4" CO2="0.00" CO="0.00" HC="0.00" NOx="0.00" PMx="0.00" fuel="0.00" electricity="0.00" noise="57.41" route="!6" type="DEFAULT_VEHTYPE" waiting="0.00" lane="4776674#2_0" pos="14.38" speed="3.63" angle="159.11" x="3447.33" y="3601.86"/>
    </timestep>
    <timestep time="21.00">
        <vehicle id="1" eclass="HBEFA3/PC_G_EU4" CO2="2582.56" CO="77.16" HC="0.41" NOx="1.03" PMx="0.04" fuel="1.11" electricity="0.00" noise="59.93" route="!1" type="DEFAULT_VEHTYPE" waiting="0.00" lane="-27444291_0" pos="99.79" speed="5.67" angle="54.94" x="3673.03" y="1609.18"/>
        <vehicle id="2" eclass="HBEFA3/PC_G_EU4" CO2="4457.40" CO="15.77" HC="0.18" NOx="1.54" PMx="0.07" fuel="1.92" electricity="0.00" noise="69.25" route="!2" type="DEFAULT_VEHTYPE" waiting="0.00" lane="-38331806#0_0" pos="56.91" speed="20.46" angle="100.92" x="1003.28" y="2430.90"/>
        <vehicle id="3" eclass="HBEFA3/PC_G_EU4" CO2="0.00" CO="0.00" HC="0.00" NOx="0.00" PMx="0.00" fuel="0.00" electricity="0.00" noise="55.11" route="!3" type="DEFAULT_VEHTYPE" waiting="0.00" lane="22338220_0" pos="32.18" speed="2.18" angle="191.85" x="2309.65" y="2586.69"/>
        <vehicle id="6" eclass="HBEFA3/PC_G_EU4" CO2="2564.14" CO="100.20" HC="0.51" NOx="1.07" PMx="0.04" fuel="1.10" electricity="0.00" noise="59.07" route="!6" type="DEFAULT_VEHTYPE" waiting="0.00" lane=":771954155_11_0" pos="0.06" speed="3.95" angle="132.28" x="3450.08" y="3599.99"/>
    </timestep>
    <timestep time="22.00">
        <vehicle id="1" eclass="HBEFA3/PC_G_EU4" CO2="0.00" CO="0.00" HC="0.00" NOx="0.00" PMx="0.00" fuel="0.00" electricity="0.00" noise="57.45" route="!1" type="DEFAULT_VEHTYPE" waiting="0.00" lane="-27444291_0" pos="105.16" speed="5.37" angle="54.94" x="3677.43" y="1612.27"/>
        <vehicle id="2" eclass="HBEFA3/PC_G_EU4" CO2="0.00" CO="0.00" HC="0.00" NOx="0.00" PMx="0.00" fuel="0.00" electricity="0.00" noise="67.11" route="!2" type="DEFAULT_VEHTYPE" waiting="0.00" lane="-38331806#0_0" pos="76.50" speed="19.58" angle="100.92" x="1022.50" y="2427.19"/>
        <vehicle id="3" eclass="HBEFA3/PC_G_EU4" CO2="2612.16" CO="121.65" HC="0.61" NOx="1.13" PMx="0.05" fuel="1.12" electricity="0.00" noise="58.76" route="!3" type="DEFAULT_VEHTYPE" waiting="0.00" lane="22338220_0" pos="34.76" speed="2.58" angle="191.85" x="2309.12" y="2584.16"/>
        <vehicle id="6" eclass="HBEFA3/PC_G_EU4" CO2="0.00" CO="0.00" HC="0.00" NOx="0.00" PMx="0.00" fuel="0.00" electricity="0.00" noise="54.72" route="!6" type="DEFAULT_VEHTYPE" waiting="0.00" lane="-4776674#2_0" pos="1.32" speed="3.31" angle="30.12" x="3450.30" y="3603.04"/>
        <vehicle id="8" eclass="HBEFA3/PC_G_EU4" CO2="2624.72" CO="164.78" HC="0.81" NOx="1.20" PMx="0.07" fuel="1.13" electricity="0.00" noise="55.94" route="!8" type="DEFAULT_VEHTYPE" waiting="0.00" lane="-36240523#2_0" pos="5.10" speed="0.00" angle="147.22" x="2672.39" y="3383.04"/>
    </timestep>
    <timestep time="23.00">
        <vehicle id="1" eclass="HBEFA3/PC_G_EU4" CO2="2667.63" CO="78.12" HC="0.42" NOx="1.07" PMx="0.04" fuel="1.15" electricity="0.00" noise="60.18" route="!1" type="DEFAULT_VEHTYPE" waiting="0.00" lane="-27444291_0" pos="110.89" speed="5.73" angle="54.94" x="3682.12" y="1615.56"/>
        <vehicle id="2" eclass="HBEFA3/PC_G_EU4" CO2="5680.30" CO="41.24" HC="0.33" NOx="2.13" PMx="0.10" fuel="2.44" electricity="0.00" noise="69.56" route="!2" type="DEFAULT_VEHTYPE" waiting="0.00" lane="-38331806#0_0" pos="96.55" speed="20.06" angle="100.92" x="1042.20" y="2423.39"/>
        <vehicle id="3" eclass="HBEFA3/PC_G_EU4" CO2="0.00" CO="0.00" HC="0.00" NOx="0.00" PMx="0.00" fuel="0.00" electricity="0.00" noise="54.05" route="!3" type="DEFAULT_VEHTYPE" waiting="0.00" lane="22338220_0" pos="36.72" speed="1.96" angle="191.85" x="2308.72" y="2582.24"/>
        <vehicle id="6" eclass="HBEFA3/PC_G_EU4" CO2="5272.45" CO="134.81" HC="0.74" NOx="2.30" PMx="0.11" fuel="2.27" electricity="0.00" noise="67.77" route="!6" type="DEFAULT_VEHTYPE" waiting="0.00" lane="-4776674#2_0" pos="6.81" speed="5.49" angle="339.11" x="3448.34" y="3608.17"/>
        <vehicle id="8" eclass="HBEFA3/PC_G_EU4" CO2="3876.66" CO="150.31" HC="0.78" NOx="1.73" PMx="0.09" fuel="1.67" electricity="0.00" noise="67.49" route="!8" type="DEFAULT_VEHTYPE" waiting="0.00" lane="-36240523#2_0" pos="7.51" speed="2.41" angle="144.45" x="2673.88" y="3381.17"/>
    </timestep>
    <timestep time="24.00">
        <vehicle id="1" eclass="HBEFA3/PC_G_EU4" CO2="0.00" CO="0.00" HC="0.00" NOx="0.00" PMx="0.00" fuel="0.00" electricity="0.00" noise="57.50" route="!1" type="DEFAULT_VEHTYPE" waiting="0.00" lane="-27444291_0" pos="116.33" speed="5.44" angle="54.94" x="3686.57" y="1618.68"/>
        <vehicle id="2" eclass="HBEFA3/PC_G_EU4" CO2="0.00" CO="0.00" HC="0.00" NOx="0.00" PMx="0.00" fuel="0.00" electricity="0.00" noise="67.77" route="!2" type="DEFAULT_VEHTYPE" waiting="0.00" lane="421614348_0" pos="10.03" speed="19.69" angle="103.66" x="1061.51" y="2420.38"/>
        <vehicle id="3" eclass="HBEFA3/PC_G_EU4" CO2="2794.64" CO="124.70" HC="0.63" NOx="1.21" PMx="0.06" fuel="1.20" electricity="0.00" noise="59.93" route="!3" type="DEFAULT_VEHTYPE" waiting="0.00" lane="22338220_0" pos="39.35" speed="2.63" angle="191.85" x="2308.18" y="2579.67"/>
        <vehicle id="6" eclass="HBEFA3/PC_G_EU4" CO2="7136.02" CO="143.73" HC="0.82" NOx="3.12" PMx="0.15" fuel="3.07" electricity="0.00" noise="69.99" route="!6" type="DEFAULT_VEHTYPE" waiting="0.00" lane="-4776674#2_0" pos="14.75" speed="7.93" angle="339.11" x="3445.51" y="3615.59"/>
        <vehicle id="8" eclass="HBEFA3/PC_G_EU4" CO2="3709.70" CO="124.96" HC="0.66" NOx="1.61" PMx="0.07" fuel="1.59" electricity="0.00" noise="63.91" route="!8" type="DEFAULT_VEHTYPE" waiting="0.00" lane="-36240523#2_0" pos="11.39" speed="3.87" angle="132.46" x="2676.77" y="3378.59"/>
    </timestep>
    <timestep time="25.00">
        <vehicle id="1" eclass="HBEFA3/PC_G_EU4" CO2="2306.59" CO="73.01" HC="0.38" NOx="0.90" PMx="0.03" fuel="0.99" electricity="0.00" noise="59.11" route="!1" type="DEFAULT_VEHTYPE" waiting="0.00" lane="-27444291_0" pos="121.88" speed="5.55" angle="54.94" x="3691.11" y="1621.87"/>
        <vehicle id="2" eclass="HBEFA3/PC_G_EU4" CO2="0.00" CO="0.00" HC="0.00" NOx="0.00" PMx="0.00" fuel="0.00" electricity="0.00" noise="63.92" route="!2" type="DEFAULT_VEHTYPE" waiting="0.00" lane="4901993#0_0" pos="6.93" speed="16.61" angle="104.24" x="1077.04" y="2414.84"/>
        <vehicle id="3" eclass="HBEFA3/PC_G_EU4" CO2="0.00" CO="0.00" HC="0.00" NOx="0.00" PMx="0.00" fuel="0.00" electricity="0.00" noise="56.40" route="!3" type="DEFAULT_VEHTYPE" waiting="0.00" lane="22338220_0" pos="41.85" speed="2.49" angle="191.85" x="2307.67" y="2577.23"/>
        <vehicle id="6" eclass="HBEFA3/PC_G_EU4" CO2="7844.44" CO="136.27" HC="0.81" NOx="3.40" PMx="0.16" fuel="3.37" electricity="0.00" noise="69.89" route="!6" type="DEFAULT_VEHTYPE" waiting="0.00" lane=":4194057052_4_0" pos="9.20" speed="10.11" angle="338.60" x="3441.83" y="3625.00"/>
        <vehicle id="8" eclass="HBEFA3/PC_G_EU4" CO2="5365.83" CO="130.77" HC="0.72" NOx="2.34" PMx="0.11" fuel="2.31" electricity="0.00" noise="67.55" route="!8" type="DEFAULT_VEHTYPE" waiting="0.00" lane="-36240523#2_0" pos="17.34" speed="5.96" angle="131.76" x="2681.21" y="3374.62"/>
        <vehicle id="9" eclass="HBEFA3/PC_G_EU4" CO2="2624.72" CO="164.78" HC="0.81" NOx="1.20" PMx="0.07" fuel="1.13" electricity="0.00" noise="55.94" route="!9" type="DEFAULT_VEHTYPE" waiting="0.00" lane="167978333#16_0" pos="5.10" speed="0.00" angle="117.77" x="1132.12" y="507.92"/>
    </timestep>
    <timestep time="26.00">
        <vehicle id="1" eclass="HBEFA3/PC_G_EU4" CO2="0.00" CO="0.00" HC="0.00" NOx="0.00" PMx="0.00" fuel="0.00" electricity="0.00" noise="55.77" route="!1" type="DEFAULT_VEHTYPE" waiting="0.00" lane="-27444291_0" pos="126.77" speed="4.90" angle="54.94" x="3695.12" y="1624.68"/>
        <vehicle id="2" eclass="HBEFA3/PC_G_EU4" CO2="0.00" CO="0.00" HC="0.00" NOx="0.00" PMx="0.00" fuel="0.00" electricity="0.00" noise="60.87" route="!2" type="DEFAULT_VEHTYPE" waiting="0.00" lane="4901993#0_0" pos="20.19" speed="13.26" angle="101.75" x="1090.01" y="2411.96"/>
        <vehicle id="3" eclass="HBEFA3/PC_G_EU4" CO2="0.00" CO="0.00" HC="0.00" NOx="0.00" PMx="0.00" fuel="0.00" electricity="0.00" noise="52.88" route="!3" type="DEFAULT_VEHTYPE" waiting="0.00" lane=":240284654_0_0" pos="1.40" speed="1.64" angle="182.57" x="2308.14" y="2575.69"/>
        <vehicle id="6" eclass="HBEFA3/PC_G_EU4" CO2="9957.42" CO="160.21" HC="0.97" NOx="4.33" PMx="0.21" fuel="4.28" electricity="0.00" noise="71.88" route="!6" type="DEFAULT_VEHTYPE" waiting="0.00" lane="-4776674#1_0" pos="5.91" speed="12.48" angle="337.69" x="3437.19" y="3636.59"/>
        <vehicle id="8" eclass="HBEFA3/PC_G_EU4" CO2="0.00" CO="0.00" HC="0.00" NOx="0.00" PMx="0.00" fuel="0.00" electricity="0.00" noise="47.47" route="!8" type="DEFAULT_VEHTYPE" waiting="0.00" lane=":3403470006_5_0" pos="0.78" speed="3.29" angle="95.58" x="2683.80" y="3375.39"/>
        <vehicle id="9" eclass="HBEFA3/PC_G_EU4" CO2="2895.29" CO="148.51" HC="0.74" NOx="1.30" PMx="0.07" fuel="1.24" electricity="0.00" noise="62.03" route="!9" type="DEFAULT_VEHTYPE" waiting="0.00" lane="167978333#16_0" pos="6.37" speed="1.27" angle="110.34" x="1133.37" y="507.68"/>
    </timestep>
    <timestep time="27.00">
        <vehicle id="1" eclass="HBEFA3/PC_G_EU4" CO2="0.00" CO="0.00" HC="0.00" NOx="0.00" PMx="0.00" fuel="0.00" electricity="0.00" noise="57.81" route="!1" type="DEFAULT_VEHTYPE" waiting="0.00" lane="-27444291_0" pos="131.57" speed="4.80" angle="54.94" x="3699.05" y="1627.44"/>
        <vehicle id="2" eclass="HBEFA3/PC_G_EU4" CO2="0.00" CO="0.00" HC="0.00" NOx="0.00" PMx="0.00" fuel="0.00" electricity="0.00" noise="56.09" route="!2" type="DEFAULT_VEHTYPE" waiting="0.00" lane="4901993#0_0" pos="29.42" speed="9.23" angle="101.75" x="1099.06" y="2410.08"/>
        <vehicle id="3" eclass="HBEFA3/PC_G_EU4" CO2="3093.01" CO="129.49" HC="0.66" NOx="1.35" PMx="0.06" fuel="1.33" electricity="0.00" noise="61.76" route="!3" type="DEFAULT_VEHTYPE" waiting="0.00" lane=":240284654_0_0" pos="4.11" speed="2.72" angle="126.90" x="2310.36" y="2575.94"/>
        <vehicle id="6" eclass="HBEFA3/PC_G_EU4" CO2="7688.64" CO="103.75" HC="0.66" NOx="3.23" PMx="0.15" fuel="3.30" electricity="0.00" noise="69.08" route="!6" type="DEFAULT_VEHTYPE" waiting="0.00" lane="-4776674#1_0" pos="19.86" speed="13.95" angle="337.69" x="3431.89" y="3649.50"/>
        <vehicle id="8" eclass="HBEFA3/PC_G_EU4" CO2="0.00" CO="0.00" HC="0.00" NOx="0.00" PMx="0.00" fuel="0.00" electricity="0.00" noise="57.12" route="!8" type="DEFAULT_VEHTYPE" waiting="0.00" lane="36240523#2_0" pos="1.67" speed="3.23" angle="353.11" x="2682.23" y="3378.01"/>
        <vehicle id="9" eclass="HBEFA3/PC_G_EU4" CO2="2990.54" CO="133.71" HC="0.68" NOx="1.31" PMx="0.06" fuel="1.29" electricity="0.00" noise="61.40" route="!9" type="DEFAULT_VEHTYPE" waiting="0.00" lane="167978333#16_0" pos="8.68" speed="2.31" angle="100.82" x="1135.64" y="507.24"/>
    </timestep>
    <timestep time="28.00">
        <vehicle id="1" eclass="HBEFA3/PC_G_EU4" CO2="0.00" CO="0.00" HC="0.00" NOx="0.00" PMx="0.00" fuel="0.00" electricity="0.00" noise="57.87" route="!1" type="DEFAULT_VEHTYPE" waiting="0.00" lane="-27444291_0" pos="136.29" speed="4.72" angle="54.94" x="3702.91" y="1630.15"/>
        <vehicle id="10" eclass="HBEFA3/PC_G_EU4" CO2="2624.72" CO="164.78" HC="0.81" NOx="1.20" PMx="0.07" fuel="1.13" electricity="0.00" noise="55.94" route="!10" type="DEFAULT_VEHTYPE" waiting="0.00" lane="-412618715_0" pos="5.10" speed="0.00" angle="330.10" x="593.34" y="3540.16"/>
        <vehicle id="2" eclass="HBEFA3/PC_G_EU4" CO2="0.00" CO="0.00" HC="0.00" NOx="0.00" PMx="0.00" fuel="0.00" electricity="0.00" noise="47.97" route="!2" type="DEFAULT_VEHTYPE" waiting="0.00" lane="4901993#0_0" pos="34.15" speed="4.73" angle="101.75" x="1103.71" y="2409.11"/>
        <vehicle id="3" eclass="HBEFA3/PC_G_EU4" CO2="0.00" CO="0.00" HC="0.00" NOx="0.00" PMx="0.00" fuel="0.00" electricity="0.00" noise="55.39" route="!3" type="DEFAULT_VEHTYPE" waiting="0.00" lane="-22338220_0" pos="1.80" speed="2.36" angle="50.08" x="2311.13" y="2578.09"/>
        <vehicle id="6" eclass="HBEFA3/PC_G_EU4" CO2="4945.08" CO="43.44" HC="0.31" NOx="1.92" PMx="0.08" fuel="2.13" electricity="0.00" noise="66.80" route="!6" type="DEFAULT_VEHTYPE" waiting="0.00" lane="-4776674#1_0" pos="34.48" speed="14.62" angle="337.69" x="3426.34" y="3663.02"/>
        <vehicle id="8" eclass="HBEFA3/PC_G_EU4" CO2="5840.87" CO="143.61" HC="0.79" NOx="2.57" PMx="0.12" fuel="2.51" electricity="0.00" noise="69.18" route="!8" type="DEFAULT_VEHTYPE" waiting="0.00" lane="36240523#2_0" pos="7.38" speed="5.72" angle="311.75" x="2677.96" y="3381.82"/>
        <vehicle id="9" eclass="HBEFA3/PC_G_EU4" CO2="0.00" CO="0.00" HC="0.00" NOx="0.00" PMx="0.00" fuel="0.00" electricity="0.00" noise="55.08" route="!9" type="DEFAULT_VEHTYPE" waiting="0.00" lane="167978333#16_0" pos="10.61" speed="1.93" angle="100.82" x="1137.54" y="506.88"/>
    </timestep>
    <timestep time="29.00">